 Gaussian 09, Revision C.01,
 Gaussian 09:  EM64L-G09RevC.01 23-Sep-2011

 --------------------------------------
 # RHF/6-31G* Opt=(Redundant) SCF=Tight
 --------------------------------------

 99/9=1/99;
 -----------------------------------------------------------------
 <qmtool> simtype="Geometry optimization" </qmtool> final_drug_opt
 -----------------------------------------------------------------
 Charge =  0 Multiplicity = 1

 SCF Done:  E(RHF) =  -998.838173514     A.U. after   14 cycles
 SCF Done:  E(RHF) =  -998.838248341     A.U. after   12 cycles
 SCF Done:  E(RHF) =  -998.838253334     A.U. after   11 cycles
 SCF Done:  E(RHF) =  -998.838283150     A.U. after   11 cycles
 SCF Done:  E(RHF) =  -998.838286349     A.U. after   11 cycles
 SCF Done:  E(RHF) =  -998.838291532     A.U. after   10 cycles
 SCF Done:  E(RHF) =  -998.838293438     A.U. after    8 cycles
 SCF Done:  E(RHF) =  -998.838295248     A.U. after    9 cycles
 SCF Done:  E(RHF) =  -998.838296362     A.U. after    9 cycles
 SCF Done:  E(RHF) =  -998.838297393     A.U. after   10 cycles
 SCF Done:  E(RHF) =  -998.838298619     A.U. after    8 cycles
 SCF Done:  E(RHF) =  -998.838299254     A.U. after    8 cycles
 SCF Done:  E(RHF) =  -998.838300616     A.U. after    9 cycles
 SCF Done:  E(RHF) =  -998.838303577     A.U. after    9 cycles
 SCF Done:  E(RHF) =  -998.838305876     A.U. after   10 cycles
 SCF Done:  E(RHF) =  -998.838306366     A.U. after    8 cycles
 SCF Done:  E(RHF) =  -998.838306422     A.U. after    8 cycles
 SCF Done:  E(RHF) =  -998.838306439     A.U. after    6 cycles
 SCF Done:  E(RHF) =  -998.838306465     A.U. after    6 cycles
 SCF Done:  E(RHF) =  -998.838306479     A.U. after    7 cycles
 Optimization completed on the basis of negligible forces.
    -- Stationary point found.

                         Standard orientation:
 ---------------------------------------------------------------------
 Center     Atomic      Atomic             Coordinates (Angstroms)
 Number     Number       Type             X           Y           Z
 ---------------------------------------------------------------------
      1          6           0       -4.348946   -1.470104    1.040700
      2          6           0       -3.034688   -0.924854    1.621503
      3          6           0       -4.391508   -1.211639   -0.473566
      4          6           0       -1.848228   -1.629391    0.945036
      5          6           0       -3.198106   -1.911840   -1.143260
      6          6           0       -1.879913   -1.362646   -0.570897
      7          6           0       -4.303342    0.300137   -0.734163
      8          6           0       -2.988133    0.851474   -0.159385
      9          6           0       -2.941878    0.585716    1.353230
     10          6           0       -1.814298    0.145859   -0.867385
     11          6           0       -0.029917    1.813541   -1.068147
     12          6           0        1.340514    2.277112   -0.579049
     13          8           0       -0.621717    2.468036   -1.890341
     14          7           0        2.098862    1.246263    0.129947
     15          6           0        2.710825    1.849484    1.305976
     16          6           0        1.674239    2.871499    1.751200
     17          6           0        1.201768    3.456021    0.417722
     18          6           0        2.988309    0.483941   -0.729640
     19          6           0        3.612200   -0.734865   -0.057528
     20          6           0        2.613574   -1.779603    0.458517
     21          6           0        3.432605   -3.080760    0.609525
     22          6           0        4.710566   -2.882252   -0.247136
     23          6           0        4.498105   -1.560066   -0.999959
     24          7           0       -0.519240    0.697491   -0.505671
     25          1           0       -5.197274   -0.991315    1.524810
     26          1           0       -4.432318   -2.536259    1.241424
     27          1           0       -3.004292   -1.110241    2.692247
     28          1           0       -5.318601   -1.601779   -0.885591
     29          1           0       -0.914199   -1.289072    1.386307
     30          1           0       -1.894455   -2.701082    1.124177
     31          1           0       -3.229676   -1.759178   -2.219351
     32          1           0       -3.251215   -2.985150   -0.975889
     33          1           0       -1.039497   -1.856265   -1.052656
     34          1           0       -5.148963    0.808333   -0.276633
     35          1           0       -4.357000    0.501520   -1.801464
     36          1           0       -2.918536    1.915399   -0.355907
     37          1           0       -3.764467    1.103149    1.841741
     38          1           0       -2.025761    0.986641    1.778893
     39          1           0       -1.923988    0.298929   -1.933869
     40          1           0        1.859492    2.614526   -1.471718
     41          1           0        2.918699    1.101902    2.061590
     42          1           0        3.654428    2.346057    1.061749
     43          1           0        0.858695    2.368831    2.261377
     44          1           0        2.079544    3.619527    2.422669
     45          1           0        0.195774    3.852945    0.448018
     46          1           0        1.856580    4.264387    0.112733
     47          1           0        2.410266    0.146503   -1.584868
     48          1           0        3.785119    1.124313   -1.121949
     49          1           0        4.232946   -0.406967    0.774790
     50          1           0        1.828777   -1.915135   -0.282111
     51          1           0        2.131004   -1.482133    1.382669
     52          1           0        3.693408   -3.255165    1.648005
     53          1           0        2.860844   -3.943264    0.285354
     54          1           0        5.582680   -2.803575    0.394638
     55          1           0        4.891431   -3.712706   -0.920455
     56          1           0        3.965501   -1.739355   -1.932089
     57          1           0        5.430429   -1.064787   -1.251826
     58          1           0        0.078499    0.229315    0.136211
 ---------------------------------------------------------------------

 The electronic state is 1-A.
 Alpha  occ. eigenvalues --  -20.50209 -15.56381 -15.55513 -11.32424 -11.25597
 Alpha  occ. eigenvalues --  -11.25049 -11.24983 -11.24911 -11.22540 -11.22419
 Alpha  occ. eigenvalues --  -11.22408 -11.22283 -11.21820 -11.21744 -11.21695
 Alpha  occ. eigenvalues --  -11.21687 -11.21646 -11.21601 -11.21531 -11.21271
 Alpha  occ. eigenvalues --  -11.21026 -11.20971 -11.20757 -11.20692  -1.37066
 Alpha  occ. eigenvalues --   -1.25452  -1.22205  -1.15445  -1.13017  -1.06530
 Alpha  occ. eigenvalues --   -1.03880  -1.03784  -1.03280  -0.99929  -0.98621
 Alpha  occ. eigenvalues --   -0.96560  -0.91236  -0.90759  -0.89097  -0.82975
 Alpha  occ. eigenvalues --   -0.81127  -0.80548  -0.79815  -0.79247  -0.78006
 Alpha  occ. eigenvalues --   -0.76445  -0.75444  -0.72078  -0.69216  -0.67831
 Alpha  occ. eigenvalues --   -0.65894  -0.64939  -0.63726  -0.63026  -0.62955
 Alpha  occ. eigenvalues --   -0.61691  -0.61386  -0.60834  -0.59500  -0.58401
 Alpha  occ. eigenvalues --   -0.57627  -0.57027  -0.56205  -0.55810  -0.55222
 Alpha  occ. eigenvalues --   -0.54733  -0.54510  -0.54199  -0.54030  -0.53571
 Alpha  occ. eigenvalues --   -0.50776  -0.49548  -0.48551  -0.48113  -0.48024
 Alpha  occ. eigenvalues --   -0.47512  -0.47245  -0.46630  -0.46319  -0.46038
 Alpha  occ. eigenvalues --   -0.45983  -0.45932  -0.45785  -0.45493  -0.44983
 Alpha  occ. eigenvalues --   -0.41341  -0.41056  -0.40363  -0.39908  -0.36252
 Alpha  occ. eigenvalues --   -0.35273
 Alpha virt. eigenvalues --    0.19031   0.20784   0.21693   0.22296   0.23400
 Alpha virt. eigenvalues --    0.23901   0.25300   0.26433   0.27026   0.27420
 Alpha virt. eigenvalues --    0.27756   0.27918   0.28349   0.29303   0.29571

 Mulliken atomic charges:
              1
     1  C   -0.308450
     2  C   -0.172810
     3  C   -0.174972
     4  C   -0.320731
     5  C   -0.314756
     6  C   -0.196408
     7  C   -0.321442
     8  C   -0.179634
     9  C   -0.315910
    10  C    0.086462
    11  C    0.758660
    12  C   -0.019280
    13  O   -0.642726
    14  N   -0.652960
    15  C   -0.102365
    16  C   -0.331735
    17  C   -0.359383
    18  C   -0.083213
    19  C   -0.184487
    20  C   -0.315911
    21  C   -0.328938
    22  C   -0.328323
    23  C   -0.317620
    24  N   -0.846948
    25  H    0.160419
    26  H    0.157693
    27  H    0.164239
    28  H    0.166494
    29  H    0.154694
    30  H    0.164724
    31  H    0.166465
    32  H    0.161792
    33  H    0.172782
    34  H    0.162119
    35  H    0.169200
    36  H    0.198380
    37  H    0.161639
    38  H    0.161879
    39  H    0.203217
    40  H    0.193346
    41  H    0.172082
    42  H    0.139919
    43  H    0.173096
    44  H    0.174559
    45  H    0.203297
    46  H    0.179047
    47  H    0.166829
    48  H    0.142648
    49  H    0.162501
    50  H    0.158436
    51  H    0.168308
    52  H    0.164659
    53  H    0.167469
    54  H    0.163102
    55  H    0.169188
    56  H    0.156980
    57  H    0.167059
    58  H    0.425618
 Sum of Mulliken atomic charges =   0.00000

 Dipole moment (field-independent basis, Debye):
    X=              2.0628    Y=             -1.9925    Z=              2.6618  Tot=              3.9129
 Quadrupole moment (field-independent basis, Debye-Ang):
   XX=           -142.1055   YY=           -153.2213   ZZ=           -154.1827
   XY=              6.4285   XZ=             -1.5217   YZ=              9.6934

 Normal termination of Gaussian 09 at Tue Oct 16 13:22:01 2018.
