 Gaussian 09, Revision C.01,
 Gaussian 09:  EM64L-G09RevC.01 23-Sep-2011

 -----------------------------------------------
 #p opt hf/6-31++g(d,p) nosymm geom=connectivity
 -----------------------------------------------

 (Enter /home/sugarlin1732/bin/g09c01//g09/l101.exe)
 ------------------------
 BindingDB_50317213_mol_1
 ------------------------
 Charge =  0 Multiplicity = 1

 SCF Done:  E(RHF) =  -998.883641331     A.U. after   17 cycles
 SCF Done:  E(RHF) =  -998.894551102     A.U. after   17 cycles
 SCF Done:  E(RHF) =  -998.900032501     A.U. after   15 cycles
 SCF Done:  E(RHF) =  -998.902526901     A.U. after   15 cycles
 SCF Done:  E(RHF) =  -998.903397080     A.U. after   14 cycles
 SCF Done:  E(RHF) =  -998.903923970     A.U. after   15 cycles
 SCF Done:  E(RHF) =  -998.904124384     A.U. after   13 cycles
 SCF Done:  E(RHF) =  -998.904222699     A.U. after   14 cycles
 SCF Done:  E(RHF) =  -998.904292277     A.U. after   13 cycles
 SCF Done:  E(RHF) =  -998.904356160     A.U. after   13 cycles
 SCF Done:  E(RHF) =  -998.904445435     A.U. after    9 cycles
 SCF Done:  E(RHF) =  -998.904445478     A.U. after    8 cycles
 SCF Done:  E(RHF) =  -998.904445541     A.U. after    9 cycles
 SCF Done:  E(RHF) =  -998.904445647     A.U. after    8 cycles
 SCF Done:  E(RHF) =  -998.904445904     A.U. after    9 cycles
 SCF Done:  E(RHF) =  -998.904446340     A.U. after   10 cycles
 SCF Done:  E(RHF) =  -998.904446633     A.U. after   10 cycles
 SCF Done:  E(RHF) =  -998.904446714     A.U. after    9 cycles
 SCF Done:  E(RHF) =  -998.904446744     A.U. after    9 cycles
 SCF Done:  E(RHF) =  -998.904446756     A.U. after    8 cycles
 Optimization completed.
    -- Stationary point found.

                          Input orientation:
 ---------------------------------------------------------------------
 Center     Atomic      Atomic             Coordinates (Angstroms)
 Number     Number       Type             X           Y           Z
 ---------------------------------------------------------------------
      1          6           0        8.638603   -8.540374    1.460219
      2          6           0        8.348526   -7.776540    0.158707
      3          6           0       10.139428   -8.858379    1.548754
      4          6           0        9.154023   -6.467830    0.144883
      5          6           0       10.939763   -7.546250    1.527976
      6          6           0       10.659005   -6.782387    0.222321
      7          6           0       10.548709   -9.721583    0.345193
      8          6           0       10.265213   -8.960984   -0.960648
      9          6           0        8.765735   -8.635466   -1.045670
     10          6           0       11.101269   -7.665441   -0.957778
     11          6           0       11.821552   -7.227398   -3.261894
     12          6           0       11.620788   -6.388506   -4.521916
     13          8           0       12.639574   -8.117671   -3.263186
     14          7           0       10.909968   -5.130649   -4.292495
     15          6           0        9.964621   -4.934250   -5.383852
     16          6           0        9.492729   -6.346423   -5.697738
     17          6           0       10.783678   -7.160526   -5.574775
     18          6           0       11.795901   -4.010655   -4.015984
     19          6           0       11.081442   -2.740019   -3.567316
     20          6           0       10.268315   -2.859971   -2.273670
     21          6           0       10.032642   -1.403922   -1.832960
     22          6           0       11.204924   -0.585296   -2.436501
     23          6           0       12.047426   -1.591434   -3.244198
     24          7           0       11.029846   -6.941488   -2.217777
     25          1           0        8.059520   -9.461477    1.488984
     26          1           0        8.329918   -7.946636    2.318951
     27          1           0        7.286273   -7.549888    0.097334
     28          1           0       10.346276   -9.394921    2.472062
     29          1           0        8.915328   -5.894735   -0.748649
     30          1           0        8.871918   -5.842474    0.989526
     31          1           0       12.003790   -7.754412    1.617252
     32          1           0       10.666702   -6.927393    2.380387
     33          1           0       11.233318   -5.858651    0.209474
     34          1           0        9.998007  -10.659966    0.353420
     35          1           0       11.604620   -9.976507    0.406323
     36          1           0       10.566381   -9.565002   -1.810633
     37          1           0        8.191189   -9.559510   -1.063359
     38          1           0        8.543758   -8.113425   -1.973394
     39          1           0       12.141786   -7.935630   -0.824861
     40          1           0       12.622926   -6.217178   -4.907497
     41          1           0        9.157355   -4.275933   -5.085136
     42          1           0       10.448745   -4.490679   -6.260720
     43          1           0        8.763883   -6.664128   -4.958069
     44          1           0        9.033164   -6.429054   -6.676629
     45          1           0       10.618462   -8.192575   -5.292649
     46          1           0       11.314253   -7.168767   -6.520460
     47          1           0       12.481046   -4.316296   -3.229596
     48          1           0       12.408378   -3.783766   -4.896334
     49          1           0       10.416777   -2.402514   -4.362356
     50          1           0       10.861160   -3.387884   -1.528399
     51          1           0        9.343144   -3.412311   -2.399444
     52          1           0        9.084408   -1.044240   -2.221650
     53          1           0        9.980676   -1.312831   -0.753006
     54          1           0       10.824568    0.197839   -3.085199
     55          1           0       11.796967   -0.094603   -1.671170
     56          1           0       12.865212   -1.971050   -2.633778
     57          1           0       12.490489   -1.148996   -4.131302
     58          1           0       10.424926   -6.160966   -2.332119
 ---------------------------------------------------------------------

 Alpha  occ. eigenvalues --  -20.51327 -15.57186 -15.56025 -11.33084 -11.26048
 Alpha  occ. eigenvalues --  -11.25384 -11.25317 -11.25317 -11.22846 -11.22665
 Alpha  occ. eigenvalues --  -11.22657 -11.22579 -11.22126 -11.21986 -11.21983
 Alpha  occ. eigenvalues --  -11.21920 -11.21874 -11.21834 -11.21831 -11.21560
 Alpha  occ. eigenvalues --  -11.21474 -11.21277 -11.21130 -11.21035  -1.37747
 Alpha  occ. eigenvalues --   -1.25780  -1.22753  -1.15784  -1.13195  -1.06714
 Alpha  occ. eigenvalues --   -1.04162  -1.04064  -1.03620  -1.00216  -0.98827
 Alpha  occ. eigenvalues --   -0.96718  -0.91554  -0.91020  -0.89299  -0.83291
 Alpha  occ. eigenvalues --   -0.81309  -0.80780  -0.80082  -0.79521  -0.78028
 Alpha  occ. eigenvalues --   -0.76683  -0.75940  -0.72365  -0.69439  -0.68061
 Alpha  occ. eigenvalues --   -0.65905  -0.65196  -0.63952  -0.63264  -0.63018
 Alpha  occ. eigenvalues --   -0.61892  -0.61606  -0.61021  -0.59740  -0.58690
 Alpha  occ. eigenvalues --   -0.57668  -0.57290  -0.56415  -0.55998  -0.55452
 Alpha  occ. eigenvalues --   -0.55001  -0.54636  -0.54361  -0.54233  -0.53878
 Alpha  occ. eigenvalues --   -0.50933  -0.49696  -0.48709  -0.48275  -0.48190
 Alpha  occ. eigenvalues --   -0.47592  -0.47359  -0.46844  -0.46519  -0.46244
 Alpha  occ. eigenvalues --   -0.46130  -0.46029  -0.45766  -0.45692  -0.45219
 Alpha  occ. eigenvalues --   -0.41625  -0.41335  -0.40588  -0.40345  -0.36772
 Alpha  occ. eigenvalues --   -0.35688
 Alpha virt. eigenvalues --    0.03604   0.04218   0.04444   0.04858   0.05351
 Alpha virt. eigenvalues --    0.05584   0.05813   0.06273   0.06507   0.07008
 Alpha virt. eigenvalues --    0.07121   0.07468   0.07700   0.08007   0.08482

 Mulliken atomic charges:
              1
     1  C   -0.389984
     2  C    0.048385
     3  C    0.066622
     4  C   -0.335060
     5  C   -0.460351
     6  C    0.394247
     7  C   -0.384923
     8  C    0.533002
     9  C   -0.375718
    10  C   -1.105824
    11  C   -0.184199
    12  C    0.560097
    13  O   -0.533772
    14  N   -0.116435
    15  C    0.029255
    16  C   -0.196922
    17  C   -0.199034
    18  C   -0.498486
    19  C    0.069472
    20  C   -0.039771
    21  C   -0.221039
    22  C   -0.297409
    23  C   -0.168365
    24  N   -0.244405
    25  H    0.105795
    26  H    0.103150
    27  H    0.163805
    28  H    0.166233
    29  H    0.104899
    30  H    0.133589
    31  H    0.105609
    32  H    0.123557
    33  H    0.179724
    34  H    0.112084
    35  H    0.108861
    36  H    0.209633
    37  H    0.141385
    38  H    0.063930
    39  H    0.181247
    40  H    0.172657
    41  H    0.107753
    42  H    0.082300
    43  H    0.088265
    44  H    0.138815
    45  H    0.149689
    46  H    0.125641
    47  H    0.112794
    48  H    0.114119
    49  H    0.124936
    50  H   -0.035053
    51  H    0.042236
    52  H    0.108320
    53  H    0.126977
    54  H    0.096003
    55  H    0.117689
    56  H    0.108481
    57  H    0.116322
    58  H    0.149169
 Sum of Mulliken atomic charges =   0.00000

 Dipole moment (field-independent basis, Debye):
    X=             -2.7640    Y=              2.9959    Z=             -0.0497  Tot=              4.0765
 Quadrupole moment (field-independent basis, Debye-Ang):
   XX=           -216.0356   YY=           -190.5952   ZZ=           -141.4670
   XY=             57.3309   XZ=              9.3736   YZ=            -12.1390

 Normal termination of Gaussian 09 at Fri Oct  5 15:23:05 2018.
